File ilmp Variable resolution Protein in fully atomistic water

2322 atoms
3763 bonds
4077 angles
7966 dihedrals
0 impropers

253 atom types
3763 bond types
4077 angle types
7966 dihedral types 
0 improper types 

25.020000 116.6388000 xlo xhi
26.070000 117.6888000 ylo yhi
25.730000 117.3488000 zlo zhi

Masses

1    14.0100000  #N3
2    1.0080000  #H
3    12.0100000  #CT
4    1.0080000  #HP
5    1.0080000  #HC
6    1.0080000  #H1
7    32.0600000  #S
8    12.0100000  #C
9    16.0000000  #O
10   14.0100000  #N
11   14.0100000  #N2
12   12.0100000  #CA
13   16.0000000  #OH
14   1.0080000  #HO
15   1.0080000  #HA
16   16.0000000  #O2
17   14.0100000  #A101
18   12.0100000  #A102
19   12.0100000  #A103
20   16.0000000  #A104
21   14.0100000  #A105
22   12.0100000  #A106
23   12.0100000  #A107
24   16.0000000  #A108
25   14.0100000  #A109
26   12.0100000  #A110
27   12.0100000  #A111
28   16.0000000  #A112
29   14.0100000  #A113
30   12.0100000  #A114
31   12.0100000  #A115
32   16.0000000  #A116
33   14.0100000  #A117
34   12.0100000  #A118
35   12.0100000  #A119
36   16.0000000  #A120
37   14.0100000  #A121
38   12.0100000  #A122
39   12.0100000  #A123
40   16.0000000  #A124
41   14.0100000  #A125
42   12.0100000  #A126
43   12.0100000  #A127
44   16.0000000  #A128
45   14.0100000  #A129
46   12.0100000  #A130
47   12.0100000  #A131
48   16.0000000  #A132
49   14.0100000  #A133
50   12.0100000  #A134
51   12.0100000  #A135
52   16.0000000  #A136
53   14.0100000  #A137
54   12.0100000  #A138
55   12.0100000  #A139
56   16.0000000  #A140
57   14.0100000  #A141
58   12.0100000  #A142
59   12.0100000  #A143
60   16.0000000  #A144
61   14.0100000  #A145
62   12.0100000  #A146
63   12.0100000  #A147
64   16.0000000  #A148
65   14.0100000  #A149
66   12.0100000  #A150
67   12.0100000  #A151
68   16.0000000  #A152
69   14.0100000  #A153
70   12.0100000  #A154
71   12.0100000  #A155
72   16.0000000  #A156
73   14.0100000  #A157
74   12.0100000  #A158
75   12.0100000  #A159
76   16.0000000  #A160
77   14.0100000  #A161
78   12.0100000  #A162
79   12.0100000  #A163
80   16.0000000  #A164
81   14.0100000  #A165
82   12.0100000  #A166
83   12.0100000  #A167
84   16.0000000  #A168
85   14.0100000  #A169
86   12.0100000  #A170
87   12.0100000  #A171
88   16.0000000  #A172
89   14.0100000  #A173
90   12.0100000  #A174
91   12.0100000  #A175
92   16.0000000  #A176
93   14.0100000  #A177
94   12.0100000  #A178
95   12.0100000  #A179
96   16.0000000  #A180
97   14.0100000  #A181
98   12.0100000  #A182
99   12.0100000  #A183
100  16.0000000  #A184
101  12.0100000  #A185
102  12.0100000  #A186
103  12.0100000  #A187
104  12.0100000  #A188
105  12.0100000  #A189
106  12.0100000  #A190
107  12.0100000  #A191
108  14.0100000  #A192
109  12.0100000  #A193
110  12.0100000  #A194
111  16.0000000  #A195
112  14.0100000  #A196
113  12.0100000  #A197
114  12.0100000  #A198
115  16.0000000  #A199
116  14.0100000  #A200
117  12.0100000  #A201
118  12.0100000  #A202
119  16.0000000  #A203
120  14.0100000  #A204
121  12.0100000  #A205
122  12.0100000  #A206
123  16.0000000  #A207
124  14.0100000  #A208
125  12.0100000  #A209
126  12.0100000  #A210
127  16.0000000  #A211
128  14.0100000  #A212
129  12.0100000  #A213
130  12.0100000  #A214
131  16.0000000  #A215
132  14.0100000  #A216
133  12.0100000  #A217
134  12.0100000  #A218
135  16.0000000  #A219
136  14.0100000  #A220
137  12.0100000  #A221
138  12.0100000  #A222
139  16.0000000  #A223
140  14.0100000  #A224
141  12.0100000  #A225
142  12.0100000  #A226
143  16.0000000  #A227
144  14.0100000  #A228
145  12.0100000  #A229
146  12.0100000  #A230
147  16.0000000  #A231
148  32.0600000  #SH
149  1.0080000  #HS
150  14.0100000  #A232
151  12.0100000  #A233
152  12.0100000  #A234
153  16.0000000  #A235
154  14.0100000  #A236
155  12.0100000  #A237
156  12.0100000  #A238
157  16.0000000  #A239
158  14.0100000  #A240
159  12.0100000  #A241
160  12.0100000  #A242
161  16.0000000  #A243
162  14.0100000  #A244
163  12.0100000  #A245
164  12.0100000  #A246
165  16.0000000  #A247
166  14.0100000  #A248
167  12.0100000  #A249
168  12.0100000  #A250
169  16.0000000  #A251
170  14.0100000  #A252
171  12.0100000  #A253
172  12.0100000  #A254
173  16.0000000  #A255
174  14.0100000  #A256
175  12.0100000  #A257
176  12.0100000  #A258
177  16.0000000  #A259
178  12.0100000  #A260
179  12.0100000  #A261
180  12.0100000  #A262
181  12.0100000  #A263
182  12.0100000  #A264
183  12.0100000  #A265
184  12.0100000  #A266
185  12.0100000  #A267
186  12.0100000  #A268
187  14.0100000  #A269
188  12.0100000  #A270
189  12.0100000  #A271
190  16.0000000  #A272
191  14.0100000  #A273
192  12.0100000  #A274
193  12.0100000  #A275
194  16.0000000  #A276
195  14.0100000  #A277
196  12.0100000  #A278
197  12.0100000  #A279
198  16.0000000  #A280
199  14.0100000  #A281
200  12.0100000  #A282
201  12.0100000  #A283
202  16.0000000  #A284
203  12.0100000  #A285
204  12.0100000  #A286
205  12.0100000  #A287
206  12.0100000  #A288
207  12.0100000  #A289
208  12.0100000  #A290
209  12.0100000  #A291
210  12.0100000  #A292
211  12.0100000  #A293
212  12.0100000  #A294
213  12.0100000  #A295
214  12.0100000  #A296
215  12.0100000  #A297
216  12.0100000  #A298
217  12.0100000  #A299
218  12.0100000  #A300
219  14.0100000  #A301
220  12.0100000  #A302
221  12.0100000  #A303
222  16.0000000  #A304
223  14.0100000  #A305
224  12.0100000  #A306
225  12.0100000  #A307
226  16.0000000  #A308
227  14.0100000  #A309
228  12.0100000  #A310
229  12.0100000  #A311
230  16.0000000  #A312
231  14.0100000  #A313
232  12.0100000  #A314
233  12.0100000  #A315
234  16.0000000  #A316
235  14.0100000  #A317
236  12.0100000  #A318
237  12.0100000  #A319
238  16.0000000  #A320
239  14.0100000  #A321
240  12.0100000  #A322
241  12.0100000  #A323
242  16.0000000  #A324
243  14.0100000  #A325
244  12.0100000  #A326
245  12.0100000  #A327
246  16.0000000  #A328
247  12.0100000  #CC
248  14.0100000  #NB
249  12.0100000  #CR
250  1.0080000  #H5
251  14.0100000  #NA
252  12.0100000  #CW
253  1.0080000  #H4

Bond Coeffs

1 harmonic    4.34000000e+02    1.01000000e+00
2 harmonic    4.34000000e+02    1.01000000e+00
3 harmonic    4.34000000e+02    1.01000000e+00
4 harmonic    3.67000000e+02    1.47100000e+00
5 harmonic    3.40000000e+02    1.09000000e+00
6 harmonic    3.10000000e+02    1.52600000e+00
7 harmonic    3.17000000e+02    1.52200000e+00
8 harmonic    3.40000000e+02    1.09000000e+00
9 harmonic    3.40000000e+02    1.09000000e+00
10 harmonic    3.10000000e+02    1.52600000e+00
11 harmonic    3.40000000e+02    1.09000000e+00
12 harmonic    3.40000000e+02    1.09000000e+00
13 harmonic    2.27000000e+02    1.81000000e+00
14 harmonic    2.27000000e+02    1.81000000e+00
15 harmonic    3.40000000e+02    1.09000000e+00
16 harmonic    3.40000000e+02    1.09000000e+00
17 harmonic    3.40000000e+02    1.09000000e+00
18 harmonic    5.70000000e+02    1.22900000e+00
19 harmonic    4.90000000e+02    1.33500000e+00
20 harmonic    4.34000000e+02    1.01000000e+00
21 harmonic    3.37000000e+02    1.44900000e+00
22 harmonic    3.40000000e+02    1.09000000e+00
23 harmonic    3.10000000e+02    1.52600000e+00
24 harmonic    3.17000000e+02    1.52200000e+00
25 harmonic    5.97514340e-02    1.38749342e+01
26 harmonic    3.40000000e+02    1.09000000e+00
27 harmonic    3.40000000e+02    1.09000000e+00
28 harmonic    3.10000000e+02    1.52600000e+00
29 harmonic    3.40000000e+02    1.09000000e+00
30 harmonic    3.40000000e+02    1.09000000e+00
31 harmonic    3.10000000e+02    1.52600000e+00
32 harmonic    3.40000000e+02    1.09000000e+00
33 harmonic    3.40000000e+02    1.09000000e+00
34 harmonic    3.37000000e+02    1.46300000e+00
35 harmonic    4.34000000e+02    1.01000000e+00
36 harmonic    4.81000000e+02    1.34000000e+00
37 harmonic    4.81000000e+02    1.34000000e+00
38 harmonic    4.81000000e+02    1.34000000e+00
39 harmonic    4.34000000e+02    1.01000000e+00
40 harmonic    4.34000000e+02    1.01000000e+00
41 harmonic    4.34000000e+02    1.01000000e+00
42 harmonic    4.34000000e+02    1.01000000e+00
43 harmonic    5.70000000e+02    1.22900000e+00
44 harmonic    4.90000000e+02    1.33500000e+00
45 harmonic    4.34000000e+02    1.01000000e+00
46 harmonic    3.37000000e+02    1.44900000e+00
47 harmonic    3.40000000e+02    1.09000000e+00
48 harmonic    3.10000000e+02    1.52600000e+00
49 harmonic    3.17000000e+02    1.52200000e+00
50 harmonic    5.97514340e-02    1.19798915e+01
51 harmonic    5.97514340e-02    1.32306500e+01
52 harmonic    3.40000000e+02    1.09000000e+00
53 harmonic    3.10000000e+02    1.52600000e+00
54 harmonic    3.10000000e+02    1.52600000e+00
55 harmonic    3.40000000e+02    1.09000000e+00
56 harmonic    3.40000000e+02    1.09000000e+00
57 harmonic    3.40000000e+02    1.09000000e+00
58 harmonic    3.40000000e+02    1.09000000e+00
59 harmonic    3.40000000e+02    1.09000000e+00
60 harmonic    3.10000000e+02    1.52600000e+00
61 harmonic    3.40000000e+02    1.09000000e+00
62 harmonic    3.40000000e+02    1.09000000e+00
63 harmonic    3.40000000e+02    1.09000000e+00
64 harmonic    5.70000000e+02    1.22900000e+00
65 harmonic    4.90000000e+02    1.33500000e+00
66 harmonic    4.34000000e+02    1.01000000e+00
67 harmonic    3.37000000e+02    1.44900000e+00
68 harmonic    3.40000000e+02    1.09000000e+00
69 harmonic    3.10000000e+02    1.52600000e+00
70 harmonic    3.17000000e+02    1.52200000e+00
71 harmonic    5.97514340e-02    9.94447083e+00
72 harmonic    5.97514340e-02    1.07023175e+01
73 harmonic    5.97514340e-02    1.32689487e+01
74 harmonic    3.40000000e+02    1.09000000e+00
75 harmonic    3.10000000e+02    1.52600000e+00
76 harmonic    3.10000000e+02    1.52600000e+00
77 harmonic    3.40000000e+02    1.09000000e+00
78 harmonic    3.40000000e+02    1.09000000e+00
79 harmonic    3.40000000e+02    1.09000000e+00
80 harmonic    3.40000000e+02    1.09000000e+00
81 harmonic    3.40000000e+02    1.09000000e+00
82 harmonic    3.10000000e+02    1.52600000e+00
83 harmonic    3.40000000e+02    1.09000000e+00
84 harmonic    3.40000000e+02    1.09000000e+00
85 harmonic    3.40000000e+02    1.09000000e+00
86 harmonic    5.70000000e+02    1.22900000e+00
87 harmonic    4.90000000e+02    1.33500000e+00
88 harmonic    4.34000000e+02    1.01000000e+00
89 harmonic    3.37000000e+02    1.44900000e+00
90 harmonic    3.40000000e+02    1.09000000e+00
91 harmonic    3.10000000e+02    1.52600000e+00
92 harmonic    3.17000000e+02    1.52200000e+00
93 harmonic    5.97514340e-02    9.43600021e+00
94 harmonic    5.97514340e-02    1.07934517e+01
95 harmonic    5.97514340e-02    1.34620244e+01
96 harmonic    3.40000000e+02    1.09000000e+00
97 harmonic    3.40000000e+02    1.09000000e+00
98 harmonic    3.10000000e+02    1.52600000e+00
99 harmonic    3.40000000e+02    1.09000000e+00
100 harmonic    3.10000000e+02    1.52600000e+00
101 harmonic    3.10000000e+02    1.52600000e+00
102 harmonic    3.40000000e+02    1.09000000e+00
103 harmonic    3.40000000e+02    1.09000000e+00
104 harmonic    3.40000000e+02    1.09000000e+00
105 harmonic    3.40000000e+02    1.09000000e+00
106 harmonic    3.40000000e+02    1.09000000e+00
107 harmonic    3.40000000e+02    1.09000000e+00
108 harmonic    5.70000000e+02    1.22900000e+00
109 harmonic    4.90000000e+02    1.33500000e+00
110 harmonic    4.34000000e+02    1.01000000e+00
111 harmonic    3.37000000e+02    1.44900000e+00
112 harmonic    3.40000000e+02    1.09000000e+00
113 harmonic    3.10000000e+02    1.52600000e+00
114 harmonic    3.17000000e+02    1.52200000e+00
115 harmonic    5.97514340e-02    1.14981651e+01
116 harmonic    5.97514340e-02    1.21421127e+01
117 harmonic    3.40000000e+02    1.09000000e+00
118 harmonic    3.40000000e+02    1.09000000e+00
119 harmonic    3.10000000e+02    1.52600000e+00
120 harmonic    3.40000000e+02    1.09000000e+00
121 harmonic    3.10000000e+02    1.52600000e+00
122 harmonic    3.10000000e+02    1.52600000e+00
123 harmonic    3.40000000e+02    1.09000000e+00
124 harmonic    3.40000000e+02    1.09000000e+00
125 harmonic    3.40000000e+02    1.09000000e+00
126 harmonic    3.40000000e+02    1.09000000e+00
127 harmonic    3.40000000e+02    1.09000000e+00
128 harmonic    3.40000000e+02    1.09000000e+00
129 harmonic    5.70000000e+02    1.22900000e+00
130 harmonic    4.90000000e+02    1.33500000e+00
131 harmonic    4.34000000e+02    1.01000000e+00
132 harmonic    3.37000000e+02    1.44900000e+00
133 harmonic    3.40000000e+02    1.09000000e+00
134 harmonic    3.40000000e+02    1.09000000e+00
135 harmonic    3.17000000e+02    1.52200000e+00
136 harmonic    5.97514340e-02    1.30094158e+01
137 harmonic    5.97514340e-02    1.36465087e+01
138 harmonic    5.70000000e+02    1.22900000e+00
139 harmonic    4.90000000e+02    1.33500000e+00
140 harmonic    4.34000000e+02    1.01000000e+00
141 harmonic    3.37000000e+02    1.44900000e+00
142 harmonic    3.40000000e+02    1.09000000e+00
143 harmonic    3.10000000e+02    1.52600000e+00
144 harmonic    3.17000000e+02    1.52200000e+00
145 harmonic    5.97514340e-02    1.31174121e+01
146 harmonic    5.97514340e-02    1.28775541e+01
147 harmonic    5.97514340e-02    1.20111989e+01
148 harmonic    5.97514340e-02    1.36874651e+01
149 harmonic    3.40000000e+02    1.09000000e+00
150 harmonic    3.40000000e+02    1.09000000e+00
151 harmonic    3.40000000e+02    1.09000000e+00
152 harmonic    5.70000000e+02    1.22900000e+00
153 harmonic    4.90000000e+02    1.33500000e+00
154 harmonic    3.37000000e+02    1.44900000e+00
155 harmonic    3.37000000e+02    1.44900000e+00
156 harmonic    3.40000000e+02    1.09000000e+00
157 harmonic    3.40000000e+02    1.09000000e+00
158 harmonic    3.10000000e+02    1.52600000e+00
159 harmonic    3.40000000e+02    1.09000000e+00
160 harmonic    3.40000000e+02    1.09000000e+00
161 harmonic    3.10000000e+02    1.52600000e+00
162 harmonic    3.40000000e+02    1.09000000e+00
163 harmonic    3.40000000e+02    1.09000000e+00
164 harmonic    3.10000000e+02    1.52600000e+00
165 harmonic    3.40000000e+02    1.09000000e+00
166 harmonic    3.17000000e+02    1.52200000e+00
167 harmonic    5.97514340e-02    1.14675542e+01
168 harmonic    5.97514340e-02    1.18697136e+01
169 harmonic    5.97514340e-02    1.13451928e+01
170 harmonic    5.97514340e-02    1.34507249e+01
171 harmonic    5.97514340e-02    1.25794237e+01
172 harmonic    5.97514340e-02    1.07788775e+01
173 harmonic    5.97514340e-02    1.17529315e+01
174 harmonic    5.70000000e+02    1.22900000e+00
175 harmonic    4.90000000e+02    1.33500000e+00
176 harmonic    4.34000000e+02    1.01000000e+00
177 harmonic    3.37000000e+02    1.44900000e+00
178 harmonic    3.40000000e+02    1.09000000e+00
179 harmonic    3.40000000e+02    1.09000000e+00
180 harmonic    3.17000000e+02    1.52200000e+00
181 harmonic    5.97514340e-02    1.08546257e+01
182 harmonic    5.97514340e-02    1.16323772e+01
183 harmonic    5.97514340e-02    1.01595718e+01
184 harmonic    5.97514340e-02    1.15378204e+01
185 harmonic    5.97514340e-02    1.20877376e+01
186 harmonic    5.97514340e-02    9.29725228e+00
187 harmonic    5.97514340e-02    1.06268951e+01
188 harmonic    5.70000000e+02    1.22900000e+00
189 harmonic    4.90000000e+02    1.33500000e+00
190 harmonic    4.34000000e+02    1.01000000e+00
191 harmonic    3.37000000e+02    1.44900000e+00
192 harmonic    3.40000000e+02    1.09000000e+00
193 harmonic    3.10000000e+02    1.52600000e+00
194 harmonic    3.17000000e+02    1.52200000e+00
195 harmonic    5.97514340e-02    1.09649715e+01
196 harmonic    5.97514340e-02    1.28653061e+01
197 harmonic    5.97514340e-02    1.21624011e+01
198 harmonic    5.97514340e-02    1.26279452e+01
199 harmonic    5.97514340e-02    1.28242154e+01
200 harmonic    5.97514340e-02    1.05414705e+01
201 harmonic    5.97514340e-02    1.29201393e+01
202 harmonic    3.40000000e+02    1.09000000e+00
203 harmonic    3.40000000e+02    1.09000000e+00
204 harmonic    3.40000000e+02    1.09000000e+00
205 harmonic    5.70000000e+02    1.22900000e+00
206 harmonic    4.90000000e+02    1.33500000e+00
207 harmonic    4.34000000e+02    1.01000000e+00
208 harmonic    3.37000000e+02    1.44900000e+00
209 harmonic    3.40000000e+02    1.09000000e+00
210 harmonic    3.40000000e+02    1.09000000e+00
211 harmonic    3.17000000e+02    1.52200000e+00
212 harmonic    5.97514340e-02    9.90903628e+00
213 harmonic    5.97514340e-02    1.27561162e+01
214 harmonic    5.97514340e-02    1.28296765e+01
215 harmonic    5.97514340e-02    1.23984435e+01
216 harmonic    5.70000000e+02    1.22900000e+00
217 harmonic    4.90000000e+02    1.33500000e+00
218 harmonic    4.34000000e+02    1.01000000e+00
219 harmonic    3.37000000e+02    1.44900000e+00
220 harmonic    3.40000000e+02    1.09000000e+00
221 harmonic    3.10000000e+02    1.52600000e+00
222 harmonic    3.17000000e+02    1.52200000e+00
223 harmonic    5.97514340e-02    9.48329584e+00
224 harmonic    5.97514340e-02    1.25173719e+01
225 harmonic    5.97514340e-02    1.36905259e+01
226 harmonic    5.97514340e-02    1.34161731e+01
227 harmonic    3.40000000e+02    1.09000000e+00
228 harmonic    3.40000000e+02    1.09000000e+00
229 harmonic    3.10000000e+02    1.52600000e+00
230 harmonic    3.40000000e+02    1.09000000e+00
231 harmonic    3.40000000e+02    1.09000000e+00
232 harmonic    3.10000000e+02    1.52600000e+00
233 harmonic    3.40000000e+02    1.09000000e+00
234 harmonic    3.40000000e+02    1.09000000e+00
235 harmonic    3.10000000e+02    1.52600000e+00
236 harmonic    3.40000000e+02    1.09000000e+00
237 harmonic    3.40000000e+02    1.09000000e+00
238 harmonic    3.67000000e+02    1.47100000e+00
239 harmonic    4.34000000e+02    1.01000000e+00
240 harmonic    4.34000000e+02    1.01000000e+00
241 harmonic    4.34000000e+02    1.01000000e+00
242 harmonic    5.70000000e+02    1.22900000e+00
243 harmonic    4.90000000e+02    1.33500000e+00
244 harmonic    4.34000000e+02    1.01000000e+00
245 harmonic    3.37000000e+02    1.44900000e+00
246 harmonic    3.40000000e+02    1.09000000e+00
247 harmonic    3.40000000e+02    1.09000000e+00
248 harmonic    3.17000000e+02    1.52200000e+00
249 harmonic    5.97514340e-02    9.66314131e+00
250 harmonic    5.97514340e-02    1.32907863e+01
251 harmonic    5.97514340e-02    1.33979215e+01
252 harmonic    5.70000000e+02    1.22900000e+00
253 harmonic    4.90000000e+02    1.33500000e+00
254 harmonic    4.34000000e+02    1.01000000e+00
255 harmonic    3.37000000e+02    1.44900000e+00
256 harmonic    3.40000000e+02    1.09000000e+00
257 harmonic    3.10000000e+02    1.52600000e+00
258 harmonic    3.17000000e+02    1.52200000e+00
259 harmonic    5.97514340e-02    1.34304840e+01
260 harmonic    3.40000000e+02    1.09000000e+00
261 harmonic    3.10000000e+02    1.52600000e+00
262 harmonic    3.20000000e+02    1.41000000e+00
263 harmonic    3.40000000e+02    1.09000000e+00
264 harmonic    3.40000000e+02    1.09000000e+00
265 harmonic    3.40000000e+02    1.09000000e+00
266 harmonic    5.53000000e+02    9.60000000e-01
267 harmonic    5.70000000e+02    1.22900000e+00
268 harmonic    4.90000000e+02    1.33500000e+00
269 harmonic    4.34000000e+02    1.01000000e+00
270 harmonic    3.37000000e+02    1.44900000e+00
271 harmonic    3.40000000e+02    1.09000000e+00
272 harmonic    3.10000000e+02    1.52600000e+00
273 harmonic    3.17000000e+02    1.52200000e+00
274 harmonic    3.40000000e+02    1.09000000e+00
275 harmonic    3.40000000e+02    1.09000000e+00
276 harmonic    3.10000000e+02    1.52600000e+00
277 harmonic    3.40000000e+02    1.09000000e+00
278 harmonic    3.40000000e+02    1.09000000e+00
279 harmonic    3.17000000e+02    1.52200000e+00
280 harmonic    5.70000000e+02    1.22900000e+00
281 harmonic    4.90000000e+02    1.33500000e+00
282 harmonic    4.34000000e+02    1.01000000e+00
283 harmonic    4.34000000e+02    1.01000000e+00
284 harmonic    5.70000000e+02    1.22900000e+00
285 harmonic    4.90000000e+02    1.33500000e+00
286 harmonic    4.34000000e+02    1.01000000e+00
287 harmonic    3.37000000e+02    1.44900000e+00
288 harmonic    3.40000000e+02    1.09000000e+00
289 harmonic    3.10000000e+02    1.52600000e+00
290 harmonic    3.17000000e+02    1.52200000e+00
291 harmonic    5.97514340e-02    1.29108482e+01
292 harmonic    3.40000000e+02    1.09000000e+00
293 harmonic    3.40000000e+02    1.09000000e+00
294 harmonic    3.40000000e+02    1.09000000e+00
295 harmonic    5.70000000e+02    1.22900000e+00
296 harmonic    4.90000000e+02    1.33500000e+00
297 harmonic    4.34000000e+02    1.01000000e+00
298 harmonic    3.37000000e+02    1.44900000e+00
299 harmonic    3.40000000e+02    1.09000000e+00
300 harmonic    3.10000000e+02    1.52600000e+00
301 harmonic    3.17000000e+02    1.52200000e+00
302 harmonic    3.40000000e+02    1.09000000e+00
303 harmonic    3.40000000e+02    1.09000000e+00
304 harmonic    3.10000000e+02    1.52600000e+00
305 harmonic    3.40000000e+02    1.09000000e+00
306 harmonic    3.40000000e+02    1.09000000e+00
307 harmonic    3.17000000e+02    1.52200000e+00
308 harmonic    5.70000000e+02    1.22900000e+00
309 harmonic    4.90000000e+02    1.33500000e+00
310 harmonic    4.34000000e+02    1.01000000e+00
311 harmonic    4.34000000e+02    1.01000000e+00
312 harmonic    5.70000000e+02    1.22900000e+00
313 harmonic    4.90000000e+02    1.33500000e+00
314 harmonic    4.34000000e+02    1.01000000e+00
315 harmonic    3.37000000e+02    1.44900000e+00
316 harmonic    3.40000000e+02    1.09000000e+00
317 harmonic    3.10000000e+02    1.52600000e+00
318 harmonic    3.17000000e+02    1.52200000e+00
319 harmonic    3.40000000e+02    1.09000000e+00
320 harmonic    3.40000000e+02    1.09000000e+00
321 harmonic    3.17000000e+02    1.51000000e+00
322 harmonic    4.69000000e+02    1.40000000e+00
323 harmonic    4.69000000e+02    1.40000000e+00
324 harmonic    3.67000000e+02    1.08000000e+00
325 harmonic    4.69000000e+02    1.40000000e+00
326 harmonic    3.67000000e+02    1.08000000e+00
327 harmonic    4.69000000e+02    1.40000000e+00
328 harmonic    3.67000000e+02    1.08000000e+00
329 harmonic    4.69000000e+02    1.40000000e+00
330 harmonic    3.67000000e+02    1.08000000e+00
331 harmonic    4.69000000e+02    1.40000000e+00
332 harmonic    3.67000000e+02    1.08000000e+00
333 harmonic    5.70000000e+02    1.22900000e+00
334 harmonic    4.90000000e+02    1.33500000e+00
335 harmonic    4.34000000e+02    1.01000000e+00
336 harmonic    3.37000000e+02    1.44900000e+00
337 harmonic    3.40000000e+02    1.09000000e+00
338 harmonic    3.10000000e+02    1.52600000e+00
339 harmonic    3.17000000e+02    1.52200000e+00
340 harmonic    3.40000000e+02    1.09000000e+00
341 harmonic    3.10000000e+02    1.52600000e+00
342 harmonic    3.10000000e+02    1.52600000e+00
343 harmonic    3.40000000e+02    1.09000000e+00
344 harmonic    3.40000000e+02    1.09000000e+00
345 harmonic    3.40000000e+02    1.09000000e+00
346 harmonic    3.40000000e+02    1.09000000e+00
347 harmonic    3.40000000e+02    1.09000000e+00
348 harmonic    3.10000000e+02    1.52600000e+00
349 harmonic    3.40000000e+02    1.09000000e+00
350 harmonic    3.40000000e+02    1.09000000e+00
351 harmonic    3.40000000e+02    1.09000000e+00
352 harmonic    5.70000000e+02    1.22900000e+00
353 harmonic    4.90000000e+02    1.33500000e+00
354 harmonic    4.34000000e+02    1.01000000e+00
355 harmonic    3.37000000e+02    1.44900000e+00
356 harmonic    3.40000000e+02    1.09000000e+00
357 harmonic    3.10000000e+02    1.52600000e+00
358 harmonic    3.17000000e+02    1.52200000e+00
359 harmonic    3.40000000e+02    1.09000000e+00
360 harmonic    3.40000000e+02    1.09000000e+00
361 harmonic    3.10000000e+02    1.52600000e+00
362 harmonic    3.40000000e+02    1.09000000e+00
363 harmonic    3.40000000e+02    1.09000000e+00
364 harmonic    2.27000000e+02    1.81000000e+00
365 harmonic    2.27000000e+02    1.81000000e+00
366 harmonic    3.40000000e+02    1.09000000e+00
367 harmonic    3.40000000e+02    1.09000000e+00
368 harmonic    3.40000000e+02    1.09000000e+00
369 harmonic    5.70000000e+02    1.22900000e+00
370 harmonic    4.90000000e+02    1.33500000e+00
371 harmonic    4.34000000e+02    1.01000000e+00
372 harmonic    3.37000000e+02    1.44900000e+00
373 harmonic    3.40000000e+02    1.09000000e+00
374 harmonic    3.10000000e+02    1.52600000e+00
375 harmonic    3.17000000e+02    1.52200000e+00
376 harmonic    3.40000000e+02    1.09000000e+00
377 harmonic    3.40000000e+02    1.09000000e+00
378 harmonic    3.10000000e+02    1.52600000e+00
379 harmonic    3.40000000e+02    1.09000000e+00
380 harmonic    3.40000000e+02    1.09000000e+00
381 harmonic    3.17000000e+02    1.52200000e+00
382 harmonic    6.56000000e+02    1.25000000e+00
383 harmonic    6.56000000e+02    1.25000000e+00
384 harmonic    5.70000000e+02    1.22900000e+00
385 harmonic    4.90000000e+02    1.33500000e+00
386 harmonic    4.34000000e+02    1.01000000e+00
387 harmonic    3.37000000e+02    1.44900000e+00
388 harmonic    3.40000000e+02    1.09000000e+00
389 harmonic    3.10000000e+02    1.52600000e+00
390 harmonic    3.17000000e+02    1.52200000e+00
391 harmonic    3.40000000e+02    1.09000000e+00
392 harmonic    3.40000000e+02    1.09000000e+00
393 harmonic    3.10000000e+02    1.52600000e+00
394 harmonic    3.40000000e+02    1.09000000e+00
395 harmonic    3.40000000e+02    1.09000000e+00
396 harmonic    3.10000000e+02    1.52600000e+00
397 harmonic    3.40000000e+02    1.09000000e+00
398 harmonic    3.40000000e+02    1.09000000e+00
399 harmonic    3.10000000e+02    1.52600000e+00
400 harmonic    3.40000000e+02    1.09000000e+00
401 harmonic    3.40000000e+02    1.09000000e+00
402 harmonic    3.67000000e+02    1.47100000e+00
403 harmonic    4.34000000e+02    1.01000000e+00
404 harmonic    4.34000000e+02    1.01000000e+00
405 harmonic    4.34000000e+02    1.01000000e+00
406 harmonic    5.70000000e+02    1.22900000e+00
407 harmonic    4.90000000e+02    1.33500000e+00
408 harmonic    4.34000000e+02    1.01000000e+00
409 harmonic    3.37000000e+02    1.44900000e+00
410 harmonic    3.40000000e+02    1.09000000e+00
411 harmonic    3.10000000e+02    1.52600000e+00
412 harmonic    3.17000000e+02    1.52200000e+00
413 harmonic    3.40000000e+02    1.09000000e+00
414 harmonic    3.40000000e+02    1.09000000e+00
415 harmonic    3.17000000e+02    1.51000000e+00
416 harmonic    4.69000000e+02    1.40000000e+00
417 harmonic    4.69000000e+02    1.40000000e+00
418 harmonic    3.67000000e+02    1.08000000e+00
419 harmonic    4.69000000e+02    1.40000000e+00
420 harmonic    3.67000000e+02    1.08000000e+00
421 harmonic    4.69000000e+02    1.40900000e+00
422 harmonic    4.50000000e+02    1.36400000e+00
423 harmonic    4.69000000e+02    1.40900000e+00
424 harmonic    5.53000000e+02    9.60000000e-01
425 harmonic    3.67000000e+02    1.08000000e+00
426 harmonic    4.69000000e+02    1.40000000e+00
427 harmonic    3.67000000e+02    1.08000000e+00
428 harmonic    5.70000000e+02    1.22900000e+00
429 harmonic    4.90000000e+02    1.33500000e+00
430 harmonic    4.34000000e+02    1.01000000e+00
431 harmonic    3.37000000e+02    1.44900000e+00
432 harmonic    3.40000000e+02    1.09000000e+00
433 harmonic    3.40000000e+02    1.09000000e+00
434 harmonic    3.17000000e+02    1.52200000e+00
435 harmonic    5.70000000e+02    1.22900000e+00
436 harmonic    4.90000000e+02    1.33500000e+00
437 harmonic    4.34000000e+02    1.01000000e+00
438 harmonic    3.37000000e+02    1.44900000e+00
439 harmonic    3.40000000e+02    1.09000000e+00
440 harmonic    3.10000000e+02    1.52600000e+00
441 harmonic    3.17000000e+02    1.52200000e+00
442 harmonic    5.97514340e-02    1.33901195e+01
443 harmonic    3.40000000e+02    1.09000000e+00
444 harmonic    3.10000000e+02    1.52600000e+00
445 harmonic    3.10000000e+02    1.52600000e+00
446 harmonic    3.40000000e+02    1.09000000e+00
447 harmonic    3.40000000e+02    1.09000000e+00
448 harmonic    3.40000000e+02    1.09000000e+00
449 harmonic    3.40000000e+02    1.09000000e+00
450 harmonic    3.40000000e+02    1.09000000e+00
451 harmonic    3.10000000e+02    1.52600000e+00
452 harmonic    3.40000000e+02    1.09000000e+00
453 harmonic    3.40000000e+02    1.09000000e+00
454 harmonic    3.40000000e+02    1.09000000e+00
455 harmonic    5.70000000e+02    1.22900000e+00
456 harmonic    4.90000000e+02    1.33500000e+00
457 harmonic    3.37000000e+02    1.44900000e+00
458 harmonic    3.37000000e+02    1.44900000e+00
459 harmonic    3.40000000e+02    1.09000000e+00
460 harmonic    3.40000000e+02    1.09000000e+00
461 harmonic    3.10000000e+02    1.52600000e+00
462 harmonic    3.40000000e+02    1.09000000e+00
463 harmonic    3.40000000e+02    1.09000000e+00
464 harmonic    3.10000000e+02    1.52600000e+00
465 harmonic    3.40000000e+02    1.09000000e+00
466 harmonic    3.40000000e+02    1.09000000e+00
467 harmonic    3.10000000e+02    1.52600000e+00
468 harmonic    3.40000000e+02    1.09000000e+00
469 harmonic    3.17000000e+02    1.52200000e+00
470 harmonic    5.97514340e-02    1.01474184e+01
471 harmonic    5.97514340e-02    1.31519352e+01
472 harmonic    5.97514340e-02    1.39037297e+01
473 harmonic    5.97514340e-02    1.29406994e+01
474 harmonic    5.70000000e+02    1.22900000e+00
475 harmonic    4.90000000e+02    1.33500000e+00
476 harmonic    4.34000000e+02    1.01000000e+00
477 harmonic    3.37000000e+02    1.44900000e+00
478 harmonic    3.40000000e+02    1.09000000e+00
479 harmonic    3.10000000e+02    1.52600000e+00
480 harmonic    3.17000000e+02    1.52200000e+00
481 harmonic    5.97514340e-02    6.85954809e+00
482 harmonic    5.97514340e-02    1.01767726e+01
483 harmonic    5.97514340e-02    1.27611206e+01
484 harmonic    5.97514340e-02    1.12917581e+01
485 harmonic    5.97514340e-02    1.09868922e+01
486 harmonic    3.40000000e+02    1.09000000e+00
487 harmonic    3.40000000e+02    1.09000000e+00
488 harmonic    3.10000000e+02    1.52600000e+00
489 harmonic    3.40000000e+02    1.09000000e+00
490 harmonic    3.40000000e+02    1.09000000e+00