File ilmp Variable resolution Protein in fully atomistic water

2288 atoms
28733 bonds
1718 angles
2591 dihedrals
217 impropers

1824 atom types
28733 bond types
1718 angle types
2591 dihedral types 
217 improper types 

62.100000 243.6456000 xlo xhi
29.140000 210.6856000 ylo yhi
21.460000 203.0056000 zlo zhi

Masses

1    12.0110000  #A101
2    12.0110000  #A102
3    12.0110000  #A103
4    12.0110000  #A104
5    12.0110000  #A105
6    12.0110000  #A106
7    12.0110000  #A107
8    12.0110000  #A108
9    12.0110000  #A109
10   12.0110000  #A110
11   12.0110000  #A111
12   12.0110000  #A112
13   12.0110000  #A113
14   12.0110000  #A114
15   12.0110000  #A115
16   12.0110000  #A116
17   12.0110000  #A117
18   12.0110000  #A118
19   12.0110000  #A119
20   12.0110000  #A120
21   12.0110000  #A121
22   12.0110000  #A122
23   12.0110000  #A123
24   12.0110000  #A124
25   12.0110000  #A125
26   12.0110000  #A126
27   12.0110000  #A127
28   12.0110000  #A128
29   12.0110000  #A129
30   12.0110000  #A130
31   12.0110000  #A131
32   12.0110000  #A132
33   12.0110000  #A133
34   12.0110000  #A134
35   12.0110000  #A135
36   12.0110000  #A136
37   12.0110000  #A137
38   12.0110000  #A138
39   12.0110000  #A139
40   12.0110000  #A140
41   12.0110000  #A141
42   12.0110000  #A142
43   12.0110000  #A143
44   12.0110000  #A144
45   12.0110000  #A145
46   12.0110000  #A146
47   12.0110000  #A147
48   12.0110000  #A148
49   12.0110000  #A149
50   12.0110000  #A150
51   12.0110000  #A151
52   12.0110000  #A152
53   12.0110000  #A153
54   12.0110000  #A154
55   12.0110000  #A155
56   12.0110000  #A156
57   12.0110000  #A157
58   12.0110000  #A158
59   12.0110000  #A159
60   12.0110000  #A160
61   12.0110000  #A161
62   12.0110000  #A162
63   12.0110000  #A163
64   12.0110000  #A164
65   12.0110000  #A165
66   12.0110000  #A166
67   12.0110000  #A167
68   12.0110000  #A168
69   12.0110000  #A169
70   12.0110000  #A170
71   12.0110000  #A171
72   12.0110000  #A172
73   12.0110000  #A173
74   12.0110000  #A174
75   12.0110000  #A175
76   12.0110000  #A176
77   12.0110000  #A177
78   12.0110000  #A178
79   12.0110000  #A179
80   12.0110000  #A180
81   12.0110000  #A181
82   12.0110000  #A182
83   12.0110000  #A183
84   12.0110000  #A184
85   12.0110000  #A185
86   12.0110000  #A186
87   12.0110000  #A187
88   12.0110000  #A188
89   12.0110000  #A189
90   12.0110000  #A190
91   12.0110000  #A191
92   12.0110000  #A192
93   12.0110000  #A193
94   12.0110000  #A194
95   12.0110000  #A195
96   12.0110000  #A196
97   12.0110000  #A197
98   12.0110000  #A198
99   12.0110000  #A199
100  12.0110000  #A200
101  12.0110000  #A201
102  12.0110000  #A202
103  12.0110000  #A203
104  12.0110000  #A204
105  12.0110000  #A205
106  12.0110000  #A206
107  12.0110000  #A207
108  12.0110000  #A208
109  12.0110000  #A209
110  12.0110000  #A210
111  12.0110000  #A211
112  12.0110000  #A212
113  12.0110000  #A213
114  12.0110000  #A214
115  12.0110000  #A215
116  12.0110000  #A216
117  12.0110000  #A217
118  12.0110000  #A218
119  12.0110000  #A219
120  12.0110000  #A220
121  12.0110000  #A221
122  14.0070000  #A222
123  12.0110000  #A223
124  12.0110000  #A224
125  15.9994000  #A225
126  14.0070000  #A226
127  12.0110000  #A227
128  12.0110000  #A228
129  15.9994000  #A229
130  14.0070000  #A230
131  12.0110000  #A231
132  12.0110000  #A232
133  15.9994000  #A233
134  14.0070000  #A234
135  12.0110000  #A235
136  12.0110000  #A236
137  15.9994000  #A237
138  14.0070000  #A238
139  12.0110000  #A239
140  12.0110000  #A240
141  15.9994000  #A241
142  14.0070000  #A242
143  12.0110000  #A243
144  12.0110000  #A244
145  15.9994000  #A245
146  14.0070000  #A246
147  12.0110000  #A247
148  12.0110000  #A248
149  15.9994000  #A249
150  14.0070000  #A250
151  12.0110000  #A251
152  12.0110000  #A252
153  15.9994000  #A253
154  14.0070000  #A254
155  12.0110000  #A255
156  12.0110000  #A256
157  15.9994000  #A257
158  12.0110000  #A258
159  12.0110000  #A259
160  12.0110000  #A260
161  12.0110000  #A261
162  12.0110000  #A262
163  12.0110000  #A263
164  12.0110000  #A264
165  12.0110000  #A265
166  12.0110000  #A266
167  12.0110000  #A267
168  12.0110000  #A268
169  12.0110000  #A269
170  12.0110000  #A270
171  12.0110000  #A271
172  12.0110000  #A272
173  12.0110000  #A273
174  12.0110000  #A274
175  12.0110000  #A275
176  12.0110000  #A276
177  12.0110000  #A277
178  12.0110000  #A278
179  12.0110000  #A279
180  12.0110000  #A280
181  12.0110000  #A281
182  12.0110000  #A282
183  12.0110000  #A283
184  12.0110000  #A284
185  12.0110000  #A285
186  12.0110000  #A286
187  12.0110000  #A287
188  12.0110000  #A288
189  12.0110000  #A289
190  12.0110000  #A290
191  12.0110000  #A291
192  12.0110000  #A292
193  12.0110000  #A293
194  12.0110000  #A294
195  12.0110000  #A295
196  12.0110000  #A296
197  12.0110000  #A297
198  12.0110000  #A298
199  12.0110000  #A299
200  12.0110000  #A300
201  12.0110000  #A301
202  12.0110000  #A302
203  12.0110000  #A303
204  12.0110000  #A304
205  12.0110000  #A305
206  12.0110000  #A306
207  12.0110000  #A307
208  12.0110000  #A308
209  12.0110000  #A309
210  12.0110000  #A310
211  12.0110000  #A311
212  12.0110000  #A312
213  12.0110000  #A313
214  12.0110000  #A314
215  12.0110000  #A315
216  12.0110000  #A316
217  14.0070000  #A317
218  12.0110000  #A318
219  12.0110000  #A319
220  15.9994000  #A320
221  12.0110000  #A321
222  12.0110000  #A322
223  14.0070000  #A323
224  12.0110000  #A324
225  12.0110000  #A325
226  15.9994000  #A326
227  14.0070000  #A327
228  12.0110000  #A328
229  12.0110000  #A329
230  15.9994000  #A330
231  14.0070000  #A331
232  12.0110000  #A332
233  12.0110000  #A333
234  15.9994000  #A334
235  14.0070000  #A335
236  12.0110000  #A336
237  12.0110000  #A337
238  15.9994000  #A338
239  12.0110000  #A339
240  12.0110000  #A340
241  12.0110000  #A341
242  12.0110000  #A342
243  12.0110000  #A343
244  12.0110000  #A344
245  12.0110000  #A345
246  12.0110000  #A346
247  12.0110000  #A347
248  12.0110000  #A348
249  12.0110000  #A349
250  12.0110000  #A350
251  12.0110000  #A351
252  12.0110000  #A352
253  12.0110000  #A353
254  12.0110000  #A354
255  14.0070000  #A355
256  12.0110000  #A356
257  12.0110000  #A357
258  15.9994000  #A358
259  14.0070000  #A359
260  12.0110000  #A360
261  12.0110000  #A361
262  15.9994000  #A362
263  14.0070000  #A363
264  12.0110000  #A364
265  12.0110000  #A365
266  15.9994000  #A366
267  14.0070000  #A367
268  12.0110000  #A368
269  12.0110000  #A369
270  15.9994000  #A370
271  14.0070000  #A371
272  12.0110000  #A372
273  12.0110000  #A373
274  15.9994000  #A374
275  14.0070000  #A375
276  12.0110000  #A376
277  12.0110000  #A377
278  12.0110000  #A378
279  12.0110000  #A379
280  12.0110000  #A380
281  12.0110000  #A381
282  12.0110000  #A382
283  12.0110000  #A383
284  12.0110000  #A384
285  12.0110000  #A385
286  12.0110000  #A386
287  12.0110000  #A387
288  12.0110000  #A388
289  12.0110000  #A389
290  12.0110000  #A390
291  12.0110000  #A391
292  12.0110000  #A392
293  12.0110000  #A393
294  12.0110000  #A394
295  12.0110000  #A395
296  12.0110000  #A396
297  12.0110000  #A397
298  12.0110000  #A398
299  12.0110000  #A399
300  12.0110000  #A400
301  12.0110000  #A401
302  12.0110000  #A402
303  12.0110000  #A403
304  12.0110000  #A404
305  12.0110000  #A405
306  12.0110000  #A406
307  12.0110000  #A407
308  12.0110000  #A408
309  12.0110000  #A409
310  12.0110000  #A410
311  12.0110000  #A411
312  12.0110000  #A412
313  12.0110000  #A413
314  12.0110000  #A414
315  12.0110000  #A415
316  12.0110000  #A416
317  12.0110000  #A417
318  12.0110000  #A418
319  12.0110000  #A419
320  12.0110000  #A420
321  12.0110000  #A421
322  12.0110000  #A422
323  12.0110000  #A423
324  12.0110000  #A424
325  12.0110000  #A425
326  12.0110000  #A426
327  12.0110000  #A427
328  12.0110000  #A428
329  12.0110000  #A429
330  12.0110000  #A430
331  12.0110000  #A431
332  12.0110000  #A432
333  12.0110000  #A433
334  12.0110000  #A434
335  12.0110000  #A435
336  12.0110000  #A436
337  12.0110000  #A437
338  12.0110000  #A438
339  12.0110000  #A439
340  12.0110000  #A440
341  12.0110000  #A441
342  12.0110000  #A442
343  12.0110000  #A443
344  12.0110000  #A444
345  12.0110000  #A445
346  12.0110000  #A446
347  12.0110000  #A447
348  12.0110000  #A448
349  12.0110000  #A449
350  12.0110000  #A450
351  12.0110000  #A451
352  12.0110000  #A452
353  12.0110000  #A453
354  12.0110000  #A454
355  12.0110000  #A455
356  12.0110000  #A456
357  12.0110000  #A457
358  12.0110000  #A458
359  12.0110000  #A459
360  12.0110000  #A460
361  12.0110000  #A461
362  12.0110000  #A462
363  12.0110000  #A463
364  12.0110000  #A464
365  12.0110000  #A465
366  12.0110000  #A466
367  12.0110000  #A467
368  12.0110000  #A468
369  12.0110000  #A469
370  12.0110000  #A470
371  12.0110000  #A471
372  12.0110000  #A472
373  12.0110000  #A473
374  12.0110000  #A474
375  12.0110000  #A475
376  12.0110000  #A476
377  12.0110000  #A477
378  12.0110000  #A478
379  12.0110000  #A479
380  12.0110000  #A480
381  12.0110000  #A481
382  12.0110000  #A482
383  12.0110000  #A483
384  12.0110000  #A484
385  12.0110000  #A485
386  12.0110000  #A486
387  12.0110000  #A487
388  12.0110000  #A488
389  12.0110000  #A489
390  12.0110000  #A490
391  12.0110000  #A491
392  12.0110000  #A492
393  12.0110000  #A493
394  12.0110000  #A494
395  12.0110000  #A495
396  12.0110000  #A496
397  12.0110000  #A497
398  12.0110000  #A498
399  12.0110000  #A499
400  12.0110000  #A500
401  12.0110000  #A501
402  12.0110000  #A502
403  12.0110000  #A503
404  12.0110000  #A504
405  14.0070000  #A505
406  12.0110000  #A506
407  12.0110000  #A507
408  15.9994000  #A508
409  14.0070000  #A509
410  12.0110000  #A510
411  12.0110000  #A511
412  15.9994000  #A512
413  14.0070000  #A513
414  12.0110000  #A514
415  12.0110000  #A515
416  15.9994000  #A516
417  14.0070000  #A517
418  12.0110000  #A518
419  12.0110000  #A519
420  15.9994000  #A520
421  14.0070000  #A521
422  12.0110000  #A522
423  12.0110000  #A523
424  15.9994000  #A524
425  14.0070000  #A525
426  12.0110000  #A526
427  12.0110000  #A527
428  15.9994000  #A528
429  14.0070000  #A529
430  12.0110000  #A530
431  12.0110000  #A531
432  15.9994000  #A532
433  14.0070000  #A533
434  12.0110000  #A534
435  12.0110000  #A535
436  15.9994000  #A536
437  14.0070000  #A537
438  12.0110000  #A538
439  12.0110000  #A539
440  15.9994000  #A540
441  14.0070000  #A541
442  12.0110000  #A542
443  12.0110000  #A543
444  15.9994000  #A544
445  14.0070000  #A545
446  12.0110000  #A546
447  12.0110000  #A547
448  15.9994000  #A548
449  14.0070000  #A549
450  12.0110000  #A550
451  12.0110000  #A551
452  15.9994000  #A552
453  12.0110000  #A553
454  12.0110000  #A554
455  12.0110000  #A555
456  12.0110000  #A556
457  12.0110000  #A557
458  14.0070000  #A558
459  12.0110000  #A559
460  12.0110000  #A560
461  15.9994000  #A561
462  12.0110000  #A562
463  12.0110000  #A563
464  12.0110000  #A564
465  12.0110000  #A565
466  12.0110000  #A566
467  12.0110000  #A567
468  12.0110000  #A568
469  12.0110000  #A569
470  12.0110000  #A570
471  12.0110000  #A571
472  12.0110000  #A572
473  12.0110000  #A573
474  12.0110000  #A574
475  12.0110000  #A575
476  12.0110000  #A576
477  12.0110000  #A577
478  14.0070000  #A578
479  12.0110000  #A579
480  12.0110000  #A580
481  15.9994000  #A581
482  12.0110000  #A582
483  12.0110000  #A583
484  12.0110000  #A584
485  12.0110000  #A585
486  12.0110000  #A586
487  12.0110000  #A587
488  12.0110000  #A588
489  12.0110000  #A589
490  12.0110000  #A590
491  12.0110000  #A591
492  12.0110000  #A592
493  12.0110000  #A593
494  12.0110000  #A594
495  12.0110000  #A595
496  12.0110000  #A596
497  12.0110000  #A597
498  12.0110000  #A598
499  12.0110000  #A599
500  12.0110000  #A600
501  12.0110000  #A601
502  12.0110000  #A602
503  12.0110000  #A603
504  12.0110000  #A604
505  12.0110000  #A605
506  12.0110000  #A606
507  12.0110000  #A607
508  12.0110000  #A608
509  12.0110000  #A609
510  12.0110000  #A610
511  12.0110000  #A611
512  14.0070000  #A612
513  12.0110000  #A613
514  12.0110000  #A614
515  15.9994000  #A615
516  14.0070000  #A616
517  12.0110000  #A617
518  12.0110000  #A618
519  15.9994000  #A619
520  14.0070000  #A620
521  12.0110000  #A621
522  12.0110000  #A622
523  15.9994000  #A623
524  14.0070000  #A624
525  12.0110000  #A625
526  12.0110000  #A626
527  15.9994000  #A627
528  14.0070000  #A628
529  12.0110000  #A629
530  12.0110000  #A630
531  15.9994000  #A631
532  14.0070000  #A632
533  12.0110000  #A633
534  12.0110000  #A634
535  15.9994000  #A635
536  14.0070000  #A636
537  12.0110000  #A637
538  12.0110000  #A638
539  15.9994000  #A639
540  14.0070000  #A640
541  12.0110000  #A641
542  12.0110000  #A642
543  15.9994000  #A643
544  14.0070000  #A644
545  12.0110000  #A645
546  12.0110000  #A646
547  15.9994000  #A647
548  14.0070000  #A648
549  12.0110000  #A649
550  12.0110000  #A650
551  15.9994000  #A651
552  14.0070000  #A652
553  12.0110000  #A653
554  12.0110000  #A654
555  15.9994000  #A655
556  12.0110000  #A656
557  12.0110000  #A657
558  12.0110000  #A658
559  12.0110000  #A659
560  12.0110000  #A660
561  12.0110000  #A661
562  12.0110000  #A662
563  12.0110000  #A663
564  12.0110000  #A664
565  12.0110000  #A665
566  12.0110000  #A666
567  14.0070000  #A667
568  12.0110000  #A668
569  12.0110000  #A669
570  15.9994000  #A670
571  14.0070000  #A671
572  12.0110000  #A672
573  12.0110000  #A673
574  15.9994000  #A674
575  14.0070000  #A675
576  12.0110000  #A676
577  12.0110000  #A677
578  15.9994000  #A678
579  14.0070000  #A679
580  12.0110000  #A680
581  12.0110000  #A681
582  15.9994000  #A682
583  14.0070000  #A683
584  12.0110000  #A684
585  12.0110000  #A685
586  15.9994000  #A686
587  14.0070000  #A687
588  12.0110000  #A688
589  12.0110000  #A689
590  15.9994000  #A690
591  14.0070000  #NH1
592  1.0080000  #H
593  12.0110000  #CT1
594  1.0080000  #HB1
595  12.0110000  #CT2
596  1.0080000  #HA2
597  14.0070000  #NH3
598  1.0080000  #HC
599  12.0110000  #C
600  15.9994000  #O
601  12.0110000  #CA
602  1.0080000  #HP
603  15.9994000  #OH1
604  1.0080000  #HB2
605  14.0070000  #N
606  12.0110000  #CP3
607  12.0110000  #CP1
608  12.0110000  #CP2
609  32.0600000  #SM
610  12.0110000  #CT3
611  1.0080000  #HA3
612  12.0110000  #CT2A
613  12.0110000  #CC
614  15.9994000  #OC
615  1.0080000  #HA1
616  14.0070000  #A691
617  12.0110000  #A692
618  12.0110000  #A693
619  15.9994000  #A694
620  14.0070000  #A695
621  12.0110000  #A696
622  12.0110000  #A697
623  15.9994000  #A698
624  14.0070000  #A699
625  12.0110000  #A700
626  12.0110000  #A701
627  15.9994000  #A702
628  12.0110000  #A703
629  12.0110000  #A704
630  12.0110000  #A705
631  12.0110000  #A706
632  12.0110000  #A707
633  12.0110000  #A708
634  12.0110000  #A709
635  12.0110000  #A710
636  12.0110000  #A711
637  12.0110000  #A712
638  12.0110000  #A713
639  12.0110000  #A714
640  12.0110000  #A715
641  12.0110000  #A716
642  12.0110000  #A717
643  12.0110000  #A718
644  12.0110000  #A719
645  12.0110000  #A720
646  12.0110000  #A721
647  12.0110000  #A722
648  14.0070000  #A723
649  12.0110000  #A724
650  12.0110000  #A725
651  15.9994000  #A726
652  14.0070000  #A727
653  12.0110000  #A728
654  12.0110000  #A729
655  15.9994000  #A730
656  14.0070000  #A731
657  12.0110000  #A732
658  12.0110000  #A733
659  15.9994000  #A734
660  14.0070000  #A735
661  12.0110000  #A736
662  12.0110000  #A737
663  15.9994000  #A738
664  14.0070000  #A739
665  12.0110000  #A740
666  12.0110000  #A741
667  15.9994000  #A742
668  14.0070000  #A743
669  12.0110000  #A744
670  12.0110000  #A745
671  15.9994000  #A746
672  14.0070000  #A747
673  12.0110000  #A748
674  12.0110000  #A749
675  15.9994000  #A750
676  14.0070000  #A751
677  12.0110000  #A752
678  12.0110000  #A753
679  15.9994000  #A754
680  14.0070000  #A755
681  12.0110000  #A756
682  12.0110000  #A757
683  15.9994000  #A758
684  14.0070000  #A759
685  12.0110000  #A760
686  12.0110000  #A761
687  15.9994000  #A762
688  14.0070000  #A763
689  12.0110000  #A764
690  12.0110000  #A765
691  15.9994000  #A766
692  14.0070000  #A767
693  12.0110000  #A768
694  12.0110000  #A769
695  15.9994000  #A770
696  14.0070000  #A771
697  12.0110000  #A772
698  12.0110000  #A773
699  15.9994000  #A774
700  14.0070000  #A775
701  12.0110000  #A776
702  12.0110000  #A777
703  15.9994000  #A778
704  12.0110000  #A779
705  12.0110000  #A780
706  12.0110000  #A781
707  12.0110000  #A782
708  12.0110000  #A783
709  12.0110000  #A784
710  12.0110000  #A785
711  12.0110000  #A786
712  12.0110000  #A787
713  12.0110000  #A788
714  12.0110000  #A789
715  12.0110000  #A790
716  12.0110000  #A791
717  12.0110000  #A792
718  12.0110000  #A793
719  12.0110000  #A794
720  14.0070000  #A795
721  12.0110000  #A796
722  12.0110000  #A797
723  15.9994000  #A798
724  12.0110000  #A799
725  12.0110000  #A800
726  14.0070000  #A801
727  12.0110000  #A802
728  12.0110000  #A803
729  15.9994000  #A804
730  14.0070000  #A805
731  12.0110000  #A806
732  12.0110000  #A807
733  15.9994000  #A808
734  14.0070000  #A809
735  12.0110000  #A810
736  12.0110000  #A811
737  15.9994000  #A812
738  14.0070000  #A813
739  12.0110000  #A814
740  12.0110000  #A815
741  15.9994000  #A816
742  14.0070000  #A817
743  12.0110000  #A818
744  12.0110000  #A819
745  15.9994000  #A820
746  14.0070000  #A821
747  12.0110000  #A822
748  12.0110000  #A823
749  15.9994000  #A824
750  14.0070000  #A825
751  12.0110000  #A826
752  12.0110000  #A827
753  15.9994000  #A828
754  14.0070000  #A829
755  12.0110000  #A830
756  12.0110000  #A831
757  15.9994000  #A832
758  12.0110000  #A833
759  12.0110000  #A834
760  12.0110000  #A835
761  12.0110000  #A836
762  12.0110000  #A837
763  12.0110000  #A838
764  12.0110000  #A839
765  12.0110000  #A840
766  12.0110000  #A841
767  12.0110000  #A842
768  12.0110000  #A843
769  12.0110000  #A844
770  12.0110000  #A845
771  12.0110000  #A846
772  12.0110000  #A847
773  12.0110000  #A848
774  12.0110000  #A849
775  12.0110000  #A850
776  12.0110000  #A851
777  14.0070000  #A852
778  12.0110000  #A853
779  12.0110000  #A854
780  15.9994000  #A855
781  14.0070000  #A856
782  12.0110000  #A857
783  12.0110000  #A858
784  15.9994000  #A859
785  14.0070000  #A860
786  12.0110000  #A861
787  12.0110000  #A862
788  15.9994000  #A863
789  14.0070000  #A864
790  12.0110000  #A865
791  12.0110000  #A866
792  15.9994000  #A867
793  14.0070000  #A868
794  12.0110000  #A869
795  12.0110000  #A870
796  15.9994000  #A871
797  14.0070000  #A872
798  12.0110000  #A873
799  12.0110000  #A874
800  15.9994000  #A875
801  14.0070000  #A876
802  12.0110000  #A877
803  12.0110000  #A878
804  15.9994000  #A879
805  14.0070000  #A880
806  12.0110000  #A881
807  12.0110000  #A882
808  15.9994000  #A883
809  14.0070000  #A884
810  12.0110000  #A885
811  12.0110000  #A886
812  15.9994000  #A887
813  14.0070000  #A888
814  12.0110000  #A889
815  12.0110000  #A890
816  15.9994000  #A891
817  14.0070000  #A892
818  12.0110000  #A893
819  12.0110000  #A894
820  15.9994000  #A895
821  14.0070000  #A896
822  12.0110000  #A897
823  12.0110000  #A898
824  15.9994000  #A899
825  14.0070000  #A900
826  12.0110000  #A901
827  12.0110000  #A902
828  15.9994000  #A903
829  12.0110000  #A904
830  12.0110000  #A905
831  12.0110000  #A906
832  12.0110000  #A907
833  12.0110000  #A908
834  12.0110000  #A909
835  12.0110000  #A910
836  12.0110000  #A911
837  12.0110000  #A912
838  12.0110000  #A913
839  12.0110000  #A914
840  12.0110000  #A915
841  12.0110000  #A916
842  12.0110000  #A917
843  12.0110000  #A918
844  12.0110000  #A919
845  12.0110000  #A920
846  12.0110000  #A921
847  12.0110000  #A922
848  12.0110000  #A923
849  12.0110000  #A924
850  12.0110000  #A925
851  12.0110000  #A926
852  12.0110000  #A927
853  12.0110000  #A928
854  12.0110000  #A929
855  12.0110000  #A930
856  12.0110000  #A931
857  12.0110000  #A932
858  12.0110000  #A933
859  12.0110000  #A934
860  12.0110000  #A935
861  12.0110000  #A936
862  12.0110000  #A937
863  12.0110000  #A938
864  12.0110000  #A939
865  12.0110000  #A940
866  12.0110000  #A941
867  12.0110000  #A942
868  12.0110000  #A943
869  12.0110000  #A944
870  12.0110000  #A945
871  12.0110000  #A946
872  12.0110000  #A947
873  12.0110000  #A948
874  12.0110000  #A949
875  12.0110000  #A950
876  12.0110000  #A951
877  12.0110000  #A952
878  12.0110000  #A953
879  12.0110000  #A954
880  12.0110000  #A955
881  12.0110000  #A956
882  12.0110000  #A957
883  12.0110000  #A958
884  12.0110000  #A959
885  12.0110000  #A960
886  12.0110000  #A961
887  12.0110000  #A962
888  12.0110000  #A963
889  12.0110000  #A964
890  12.0110000  #A965
891  12.0110000  #A966
892  12.0110000  #A967
893  12.0110000  #A968
894  12.0110000  #A969
895  12.0110000  #A970
896  12.0110000  #A971
897  12.0110000  #A972
898  12.0110000  #A973
899  12.0110000  #A974
900  12.0110000  #A975
901  12.0110000  #A976
902  12.0110000  #A977
903  12.0110000  #A978
904  12.0110000  #A979
905  12.0110000  #A980
906  12.0110000  #A981
907  12.0110000  #A982
908  12.0110000  #A983
909  12.0110000  #A984
910  12.0110000  #A985
911  12.0110000  #A986
912  12.0110000  #A987
913  12.0110000  #A988
914  12.0110000  #A989
915  12.0110000  #A990
916  12.0110000  #A991
917  12.0110000  #A992
918  12.0110000  #A993
919  12.0110000  #A994
920  12.0110000  #A995
921  12.0110000  #A996
922  12.0110000  #A997
923  12.0110000  #A998
924  12.0110000  #A999
925  12.0110000  #A1000
926  12.0110000  #A1001
927  12.0110000  #A1002
928  12.0110000  #A1003
929  12.0110000  #A1004
930  12.0110000  #A1005
931  12.0110000  #A1006
932  12.0110000  #A1007
933  12.0110000  #A1008
934  12.0110000  #A1009
935  12.0110000  #A1010
936  12.0110000  #A1011
937  12.0110000  #A1012
938  12.0110000  #A1013
939  12.0110000  #A1014
940  12.0110000  #A1015
941  12.0110000  #A1016
942  12.0110000  #A1017
943  12.0110000  #A1018
944  12.0110000  #A1019
945  12.0110000  #A1020
946  12.0110000  #A1021
947  12.0110000  #A1022
948  12.0110000  #A1023
949  12.0110000  #A1024
950  12.0110000  #A1025
951  12.0110000  #A1026
952  12.0110000  #A1027
953  12.0110000  #A1028
954  12.0110000  #A1029
955  12.0110000  #A1030
956  12.0110000  #A1031
957  12.0110000  #A1032
958  12.0110000  #A1033
959  12.0110000  #A1034
960  12.0110000  #A1035
961  12.0110000  #A1036
962  12.0110000  #A1037
963  12.0110000  #A1038
964  12.0110000  #A1039
965  12.0110000  #A1040
966  12.0110000  #A1041
967  12.0110000  #A1042
968  12.0110000  #A1043
969  12.0110000  #A1044
970  12.0110000  #A1045
971  12.0110000  #A1046
972  12.0110000  #A1047
973  12.0110000  #A1048
974  12.0110000  #A1049
975  12.0110000  #A1050
976  12.0110000  #A1051
977  12.0110000  #A1052
978  12.0110000  #A1053
979  12.0110000  #A1054
980  12.0110000  #A1055
981  12.0110000  #A1056
982  12.0110000  #A1057
983  12.0110000  #A1058
984  12.0110000  #A1059
985  12.0110000  #A1060
986  12.0110000  #A1061
987  12.0110000  #A1062
988  12.0110000  #A1063
989  12.0110000  #A1064
990  12.0110000  #A1065
991  12.0110000  #A1066
992  12.0110000  #A1067
993  12.0110000  #A1068
994  12.0110000  #A1069
995  12.0110000  #A1070
996  12.0110000  #A1071
997  12.0110000  #A1072
998  12.0110000  #A1073
999  12.0110000  #A1074
1000 12.0110000  #A1075
1001 12.0110000  #A1076
1002 12.0110000  #A1077
1003 12.0110000  #A1078
1004 12.0110000  #A1079
1005 12.0110000  #A1080
1006 12.0110000  #A1081
1007 12.0110000  #A1082
1008 12.0110000  #A1083
1009 12.0110000  #A1084
1010 12.0110000  #A1085
1011 12.0110000  #A1086
1012 12.0110000  #A1087
1013 12.0110000  #A1088
1014 12.0110000  #A1089
1015 12.0110000  #A1090
1016 12.0110000  #A1091
1017 12.0110000  #A1092
1018 12.0110000  #A1093
1019 12.0110000  #A1094
1020 12.0110000  #A1095
1021 12.0110000  #A1096
1022 12.0110000  #A1097
1023 12.0110000  #A1098
1024 12.0110000  #A1099
1025 12.0110000  #A1100
1026 12.0110000  #A1101
1027 12.0110000  #A1102
1028 12.0110000  #A1103
1029 12.0110000  #A1104
1030 12.0110000  #A1105
1031 12.0110000  #A1106
1032 12.0110000  #A1107
1033 12.0110000  #A1108
1034 12.0110000  #A1109
1035 12.0110000  #A1110
1036 12.0110000  #A1111
1037 12.0110000  #A1112
1038 12.0110000  #A1113
1039 12.0110000  #A1114
1040 12.0110000  #A1115
1041 12.0110000  #A1116
1042 12.0110000  #A1117
1043 12.0110000  #A1118
1044 12.0110000  #A1119
1045 12.0110000  #A1120
1046 12.0110000  #A1121
1047 12.0110000  #A1122
1048 12.0110000  #A1123
1049 12.0110000  #A1124
1050 12.0110000  #A1125
1051 12.0110000  #A1126
1052 12.0110000  #A1127
1053 12.0110000  #A1128
1054 12.0110000  #A1129
1055 12.0110000  #A1130
1056 12.0110000  #A1131
1057 12.0110000  #A1132
1058 14.0070000  #A1133
1059 12.0110000  #A1134
1060 12.0110000  #A1135
1061 15.9994000  #A1136
1062 12.0110000  #A1137
1063 14.0070000  #A1138
1064 12.0110000  #A1139
1065 12.0110000  #A1140
1066 15.9994000  #A1141
1067 14.0070000  #A1142
1068 12.0110000  #A1143
1069 12.0110000  #A1144
1070 15.9994000  #A1145
1071 14.0070000  #A1146
1072 12.0110000  #A1147
1073 12.0110000  #A1148
1074 15.9994000  #A1149
1075 14.0070000  #A1150
1076 12.0110000  #A1151
1077 12.0110000  #A1152
1078 15.9994000  #A1153
1079 14.0070000  #A1154
1080 12.0110000  #A1155
1081 12.0110000  #A1156
1082 15.9994000  #A1157
1083 14.0070000  #A1158
1084 12.0110000  #A1159
1085 12.0110000  #A1160
1086 15.9994000  #A1161
1087 14.0070000  #A1162
1088 12.0110000  #A1163
1089 12.0110000  #A1164
1090 15.9994000  #A1165
1091 14.0070000  #A1166
1092 12.0110000  #A1167
1093 12.0110000  #A1168
1094 15.9994000  #A1169
1095 14.0070000  #A1170
1096 12.0110000  #A1171
1097 12.0110000  #A1172
1098 15.9994000  #A1173
1099 12.0110000  #A1174
1100 12.0110000  #A1175
1101 12.0110000  #A1176
1102 12.0110000  #A1177
1103 12.0110000  #A1178
1104 12.0110000  #A1179
1105 12.0110000  #A1180
1106 12.0110000  #A1181
1107 12.0110000  #A1182
1108 12.0110000  #A1183
1109 12.0110000  #A1184
1110 12.0110000  #A1185
1111 12.0110000  #A1186
1112 12.0110000  #A1187
1113 12.0110000  #A1188
1114 12.0110000  #A1189
1115 12.0110000  #A1190
1116 12.0110000  #A1191
1117 12.0110000  #A1192
1118 12.0110000  #A1193
1119 12.0110000  #A1194
1120 12.0110000  #A1195
1121 12.0110000  #A1196
1122 12.0110000  #A1197
1123 12.0110000  #A1198
1124 12.0110000  #A1199
1125 12.0110000  #A1200
1126 12.0110000  #A1201
1127 12.0110000  #A1202
1128 12.0110000  #A1203
1129 12.0110000  #A1204
1130 12.0110000  #A1205
1131 12.0110000  #A1206
1132 12.0110000  #A1207
1133 12.0110000  #A1208
1134 12.0110000  #A1209
1135 12.0110000  #A1210
1136 12.0110000  #A1211
1137 12.0110000  #A1212
1138 12.0110000  #A1213
1139 12.0110000  #A1214
1140 12.0110000  #A1215
1141 12.0110000  #A1216
1142 12.0110000  #A1217
1143 12.0110000  #A1218
1144 12.0110000  #A1219
1145 12.0110000  #A1220
1146 12.0110000  #A1221
1147 12.0110000  #A1222
1148 12.0110000  #A1223
1149 12.0110000  #A1224
1150 12.0110000  #A1225
1151 12.0110000  #A1226
1152 12.0110000  #A1227
1153 12.0110000  #A1228
1154 12.0110000  #A1229
1155 12.0110000  #A1230
1156 12.0110000  #A1231
1157 12.0110000  #A1232
1158 14.0070000  #A1233
1159 12.0110000  #A1234
1160 12.0110000  #A1235
1161 15.9994000  #A1236
1162 12.0110000  #A1237
1163 12.0110000  #A1238
1164 12.0110000  #A1239
1165 12.0110000  #A1240
1166 12.0110000  #A1241
1167 12.0110000  #A1242
1168 12.0110000  #A1243
1169 12.0110000  #A1244
1170 12.0110000  #A1245
1171 12.0110000  #A1246
1172 12.0110000  #A1247
1173 12.0110000  #A1248
1174 12.0110000  #A1249
1175 12.0110000  #A1250
1176 12.0110000  #A1251
1177 12.0110000  #A1252
1178 12.0110000  #A1253
1179 12.0110000  #A1254
1180 12.0110000  #A1255
1181 12.0110000  #A1256
1182 14.0070000  #A1257
1183 12.0110000  #A1258
1184 12.0110000  #A1259
1185 15.9994000  #A1260
1186 12.0110000  #A1261
1187 14.0070000  #A1262
1188 12.0110000  #A1263
1189 12.0110000  #A1264
1190 15.9994000  #A1265
1191 14.0070000  #A1266
1192 12.0110000  #A1267
1193 12.0110000  #A1268
1194 15.9994000  #A1269
1195 14.0070000  #A1270
1196 12.0110000  #A1271
1197 12.0110000  #A1272
1198 15.9994000  #A1273
1199 14.0070000  #A1274
1200 12.0110000  #A1275
1201 12.0110000  #A1276
1202 15.9994000  #A1277
1203 14.0070000  #A1278
1204 12.0110000  #A1279
1205 12.0110000  #A1280
1206 15.9994000  #A1281
1207 14.0070000  #A1282
1208 12.0110000  #A1283
1209 12.0110000  #A1284
1210 12.0110000  #A1285
1211 12.0110000  #A1286
1212 12.0110000  #A1287
1213 12.0110000  #A1288
1214 12.0110000  #A1289
1215 12.0110000  #A1290
1216 12.0110000  #A1291
1217 12.0110000  #A1292
1218 12.0110000  #A1293
1219 12.0110000  #A1294
1220 12.0110000  #A1295
1221 12.0110000  #A1296
1222 12.0110000  #A1297
1223 12.0110000  #A1298
1224 12.0110000  #A1299
1225 12.0110000  #A1300
1226 12.0110000  #A1301
1227 12.0110000  #A1302
1228 12.0110000  #A1303
1229 12.0110000  #A1304
1230 12.0110000  #A1305
1231 12.0110000  #A1306
1232 12.0110000  #A1307
1233 12.0110000  #A1308
1234 12.0110000  #A1309
1235 12.0110000  #A1310
1236 12.0110000  #A1311
1237 12.0110000  #A1312
1238 12.0110000  #A1313
1239 12.0110000  #A1314
1240 12.0110000  #A1315
1241 12.0110000  #A1316
1242 12.0110000  #A1317
1243 12.0110000  #A1318
1244 12.0110000  #A1319
1245 12.0110000  #A1320
1246 12.0110000  #A1321
1247 12.0110000  #A1322
1248 12.0110000  #A1323
1249 12.0110000  #A1324
1250 12.0110000  #A1325
1251 12.0110000  #A1326
1252 12.0110000  #A1327
1253 12.0110000  #A1328
1254 12.0110000  #A1329
1255 12.0110000  #A1330
1256 12.0110000  #A1331
1257 12.0110000  #A1332
1258 12.0110000  #A1333
1259 12.0110000  #A1334
1260 12.0110000  #A1335
1261 12.0110000  #A1336
1262 12.0110000  #A1337
1263 12.0110000  #A1338
1264 12.0110000  #A1339
1265 12.0110000  #A1340
1266 12.0110000  #A1341
1267 12.0110000  #A1342
1268 12.0110000  #A1343
1269 12.0110000  #A1344
1270 12.0110000  #A1345
1271 12.0110000  #A1346
1272 12.0110000  #A1347
1273 12.0110000  #A1348
1274 12.0110000  #A1349
1275 12.0110000  #A1350
1276 12.0110000  #A1351
1277 12.0110000  #A1352